% Model:              20230618.mph          
% Version:            COMSOL 6.1.0.252      
% Date:               Jun 19 2023, 01:02    
% Dimension:          2                     
% Nodes:              239                   
% Elements:           424                   
% Expressions:        0                     
% Description:                              
% Length unit:        m                     
% Coordinates
0.04310236639389219      0.9569709617772718       
0                        1                        
0                        0.9375                   
0.06540253941038188      0.9978589618972581       
0.09433709248227534      0.9486874174626072       
0.05553306528763099      0.900974349741805        
0                        0.875                    
0.1305261451917884       0.9914448675651976       
0.1540432839210745       0.9359595447957295       
0.1172697055390869       0.8941202494421018       
0.0896555044082095       0.8566440695332694       
0.04436666193926159      0.8378978479680625       
0                        0.8125                   
0.1731608850137783       0.8798007757538593       
0.2137113404116926       0.9212276645015746       
0.2284856889393719       0.8617048203135509       
0.1950913910767165       0.9807850677532521       
0.1368884021215528       0.8426553393653406       
0.09323186623110973      0.808523977503029        
0.04735999702988991      0.779629253334715        
0                        0.75                     
0.1883387541504988       0.823314105260855        
0.2405943919538371       0.8031047357557461       
0.284157535266652        0.842913671788295        
0.2730079314627057       0.9036282567749083       
0.2588199561455148       0.9659255821753734       
0.2927566698021591       0.7841527539770291       
0.1437702052162599       0.7844695126016848       
0.09735042667148459      0.7498478422151015       
0.04921060187811355      0.7190066312482235       
0                        0.6875                   
0.1967609055165241       0.761369177785033        
0.2495936563740371       0.7435215895458331       
0.2996152178307702       0.7294362758752679       
0.3388840833144667       0.8218289303534659       
0.3314330635650569       0.8830678553907151       
0.3214400044479465       0.946929946479941        
0.3440970805981292       0.763719444724786        
0.1499962542030165       0.7214007555453922       
0.1001869004101206       0.6893851568622882       
0.05030506599991361      0.6577566942372868       
0                        0.625                    
0                        0.5625                   
0.05050854304871712      0.6002512773487714       
0.2081766897152789       0.6936250677157835       
0.2638620362917375       0.6919624758104658       
0.3473442024082539       0.7091874012759776       
0.3079611804270795       0.6863595271310305       
0.3922637267533369       0.7978515542398794       
0.3885964239014659       0.8592683020000919       
0.3826839727847817       0.9238793086619358       
0.3939393043444613       0.7397614881209172       
0.1520896799122536       0.6590485969003871       
0.1021693737959418       0.6292504210273384       
0                        0.5                      
0.05381694465493524      0.545768710484038        
0.0948840150938072       0.5803487844295039       
0.2423098707865246       0.6549988935798658       
0.1986543130733296       0.6321527681901438       
0.2877527020206564       0.6446275272435662       
0.3934239947279866       0.6847793321375125       
0.3425680644554921       0.655500458387666        
0.06526306467643946      0.4957224348252143       
0.4440839064400685       0.7705254924762511       
0.4441669439571017       0.8319629212224723       
0.4422891679825192       0.8968725059256365       
0.4424229151389924       0.7125057038710967       
0.4402264583691147       0.657765425398957        
0.1536927470527156       0.5896760868135715       
0.1142324669167263       0.5367974264737998       
0.2447784378674834       0.6117762496848436       
0.2062733964996165       0.5842929654931204       
0.3191900314580883       0.613920966646764        
0.2833100697311008       0.5935125748176824       
0.3947471062773785       0.6342153370750065       
0.3594715761609669       0.6049795361362588       
0.1294094677391277       0.4829629278313974       
0.4940386274280381       0.7398914999023621       
0.4978479299417666       0.801130599590564        
0.5000004162190531       0.8660251634801229       
0.4889485530904983       0.6823234950121448       
0.4394848539694388       0.6042091902139385       
0.48354973664967         0.6286609372488441       
0.1887063907664618       0.5289809573726915       
0.245535093738092        0.558878765404352        
0.3213483580406669       0.5711969153061089       
0.2874512152339567       0.5535756826136757       
0.3991772991617235       0.5797671511857206       
0.357968161634921        0.5531172840018291       
0.1913416309051191       0.4619398015787005       
0.5416272219336481       0.70598893841189         
0.5493555012519803       0.7668519572952861       
0.5555706528541925       0.8314693317778873       
0.532697049934039        0.6486133722414997       
0.4443950017097286       0.5502342448580805       
0.4782068359607528       0.5849172420746156       
0.521684204322124        0.5941377480845278       
0.2604908853547921       0.5012724348931428       
0.3163576990822673       0.5226390984086342       
0.3947608110231496       0.5286839841222249       
0.3566932263407519       0.5114370188520272       
0.4276881234323127       0.49917043545413         
0.2499998748831052       0.4330127741284681       
0.5867052105514021       0.6688103217607337       
0.5984251228853351       0.7292321487667831       
0.6087617514807621       0.7933530928496307       
0.5733645875445753       0.6117638901265675       
0.4675185747370144       0.5104461196793533       
0.5020348139245182       0.5431278996782276       
0.5575483631138569       0.5580876603221201       
0.3239264075648567       0.4637067092769415       
0.3818115441015603       0.4781989677140175       
0.4586324606619362       0.4696173776311154       
0.4190069075773447       0.4578406111537278       
0.3043805704770788       0.3966767806615962       
0.6291848138649253       0.6288233129997173       
0.6448820028938368       0.6884411175505628       
0.6593461463726642       0.7518395169605792       
0.6124401232646505       0.5729155665368567       
0.5045844152208516       0.4899825733056324       
0.4883932094861676       0.4410526767976343       
0.5459224523862227       0.5087494038579692       
0.5959231652748286       0.52052723023801         
0.3826700453659934       0.41678029179779         
0.440248102283094        0.4237979034263322       
0.4738111884280916       0.3998225644909898       
0.3535532545543327       0.3535535266321624       
0.6691952477683497       0.5863625516052264       
0.6885904900174081       0.6447342205361182       
0.707107053264325        0.7071065091086652       
0.6494245620213669       0.5319287539294993       
0.535748801151822        0.4557332284998561       
0.5173320580875423       0.4073624491991265       
0.5806916919071559       0.4698402463800539       
0.6301441816779482       0.4818102689910839       
0.4312165897621347       0.364664437249685        
0.4912963508787046       0.3622455645381111       
0.3966765464248155       0.3043808757403808       
0.7061964955004991       0.5414460139261891       
0.7293444903159741       0.5983314076204398       
0.7518400243624895       0.6593455677917393       
0.6826512730775085       0.4885122174214382       
0.5239660551700257       0.334769376034577        
0.5424729761850772       0.3700651445188335       
0.5722698223953916       0.4152555163493342       
0.6138435006521641       0.4409849275301834       
0.6583372710738058       0.4390708792229721       
0.4736103259187724       0.3060302386121577       
0.4330125817400615       0.2500002081095264       
0.7399866887766404       0.4940475749681187       
0.7669011670721986       0.5493444475348933       
0.7933535613231927       0.6087611409541571       
0.7123132520046026       0.4428031449012212       
0.5320145187553112       0.2944543302383473       
0.564703734679077        0.3320562615048424       
0.5852596839091787       0.3687031966499633       
0.6277266343194013       0.3928269401632082       
0.6831025239026733       0.3956312824800756       
0.505726200521081        0.2438768957223451       
0.5551344334169325       0.2616939354307705       
0.461939654330968        0.1913419863923907       
0.5542419107625517       0.2252985789119277       
0.7704746205892617       0.4448079497248402       
0.8010548412321791       0.497909288764632        
0.8314697593180632       0.5555700129952678       
0.7395464098655536       0.3957104612246187       
0.5827264347585727       0.2909915114277936       
0.6191241204088218       0.3333123294844137       
0.6621495178937739       0.3568304494255151       
0.7089630466895829       0.3505604128221499       
0.5969326460847869       0.2404115986343693       
0.4829627910876866       0.1294099780727574       
0.5301299787229703       0.1783189923612954       
0.578841453011831        0.1971379715392333       
0.5389951808150929       0.1122203195752729       
0.4957224337825988       0.06526307259589417      
0.7981246118927384       0.3936632329174359       
0.8320118892709388       0.4446463465474849       
0.8660255482569366       0.4999997497662097       
0.7643004041144624       0.3467967445019897       
0.6370438280174159       0.2798780399680206       
0.6718119309623802       0.3123963257735286       
0.7287528626475942       0.3036127938747825       
0.6453025308613237       0.2340920306333903       
0.624886130074386        0.1930805841348149       
0.5880165994144597       0.1485801036537596       
0.5812140441779313       0.09304373091950936      
0.5468608105535382       0.05329630575067127      
0.5                      0                        
0.8228990926628099       0.3408025470867528       
0.8595145323511764       0.389216542038793        
0.8968728462899733       0.4422884777921777       
0.7875073422937869       0.2964646639855295       
0.6901320657454117       0.256350412199963        
0.7555761455690051       0.2540661658915473       
0.6775179843846177       0.2007395182297833       
0.6522095176517516       0.1495796303640594       
0.6292164048687832       0.101425370784754        
0.6029812252377822       0.0496965548330891       
0.5625                   0                        
0.8445045609637941       0.2868980868996365       
0.8836926999284075       0.3326435711631934       
0.9238796031574013       0.3826832618102377       
0.8090109878050559       0.2466116456584677       
0.7309887381013117       0.2053886388528278       
0.7779424969401432       0.2134168758223848       
0.7094793831246315       0.1519794910721413       
0.6841406040436315       0.1016727143091034       
0.6578996849588024       0.04977943136636401      
0.625                    0                        
0.8643771728615538       0.2329833666808863       
0.9045365275913256       0.2749047611784518       
0.9469301938444108       0.3214392757361592       
0.8241584220001794       0.1958482337853071       
0.7723719696071569       0.1596733760460109       
0.7436740463900766       0.1019800408757909       
0.716869904898037        0.05046319406587269      
0.6875                   0                        
0.8813172759175406       0.1796768938391303       
0.9217886822869934       0.2166453311125803       
0.9659258556627951       0.2588189354782551       
0.8399468059874606       0.1427425959110991       
0.8055248140080432       0.09858593832392931      
0.7781942160711365       0.0496094653727556       
0.75                     0                        
0.8905605437103505       0.1349969310016128       
0.9337475420213792       0.1583533996963511       
0.9807853060240739       0.1950901932114058       
0.8699985067435173       0.08938458392769277      
0.8405965311306619       0.04662761897094084      
0.8125                   0                        
0.9363091478174206       0.09390156721399878      
0.9914448696504287       0.1305261293528789       
0.9024431843668443       0.04244574889364039      
0.875                    0                        
0.9548222516499129       0.04035008044214443      
0.9978589260652994       0.06540308610308297      
0.9375                   0                        
1                        0                        
% Elements (triangles)
1         2         3         
1         4         2         
1         5         4         
1         3         6         
1         6         5         
7         6         3         
5         8         4         
8         5         9         
10        9         5         
5         6         10        
11        10        6         
7         12        6         
11        6         12        
12        7         13        
10        14        9         
14        15        9         
14        16        15        
9         17        8         
9         15        17        
18        14        10        
11        18        10        
11        12        19        
11        19        18        
13        20        12        
19        12        20        
20        13        21        
16        14        22        
18        22        14        
22        23        16        
24        16        23        
16        25        15        
16        24        25        
15        26        17        
15        25        26        
23        27        24        
19        28        18        
18        28        22        
20        29        19        
28        19        29        
21        30        20        
29        20        30        
30        21        31        
23        22        32        
28        32        22        
27        23        33        
33        23        32        
34        27        33        
24        27        35        
25        24        36        
35        36        24        
25        37        26        
36        37        25        
38        35        27        
27        34        38        
29        39        28        
32        28        39        
30        40        29        
39        29        40        
41        31        42        
31        41        30        
40        30        41        
42        43        44        
44        41        42        
33        32        45        
39        45        32        
34        33        46        
46        33        45        
47        38        34        
48        47        34        
48        34        46        
35        38        49        
36        35        50        
49        50        35        
37        36        51        
50        51        36        
52        49        38        
38        47        52        
40        53        39        
39        53        45        
41        44        54        
41        54        40        
53        40        54        
43        55        56        
56        44        43        
57        44        56        
57        54        44        
58        46        45        
59        45        53        
58        45        59        
58        60        46        
48        46        60        
61        52        47        
47        62        61        
48        62        47        
48        60        62        
63        56        55        
49        52        64        
50        49        65        
64        65        49        
51        50        66        
65        66        50        
67        64        52        
52        61        67        
68        67        61        
57        69        54        
54        69        53        
59        53        69        
56        63        70        
57        56        70        
57        70        69        
58        59        71        
58        71        60        
72        59        69        
72        71        59        
73        62        60        
73        60        74        
74        60        71        
75        68        61        
75        61        62        
73        76        62        
76        75        62        
70        63        77        
67        78        64        
64        79        65        
78        79        64        
65        80        66        
79        80        65        
81        78        67        
68        81        67        
68        75        82        
83        81        68        
83        68        82        
70        77        84        
69        70        84        
72        69        84        
72        84        85        
74        71        85        
72        85        71        
73        74        86        
73        86        76        
87        74        85        
87        86        74        
76        88        75        
82        75        88        
88        76        89        
86        89        76        
90        84        77        
81        91        78        
78        92        79        
91        92        78        
79        93        80        
92        93        79        
81        94        91        
83        94        81        
88        95        82        
96        83        82        
96        82        95        
83        97        94        
96        97        83        
84        90        98        
85        84        98        
87        85        98        
87        98        99        
86        99        89        
87        99        86        
89        100       88        
88        100       95        
101       89        99        
101       100       89        
102       95        100       
103       98        90        
94        104       91        
91        105       92        
91        104       105       
92        106       93        
105       106       92        
94        107       104       
107       94        97        
108       95        102       
96        109       97        
108       109       95        
96        95        109       
97        110       107       
97        109       110       
98        103       111       
99        98        111       
101       99        111       
101       111       112       
102       100       112       
101       112       100       
108       102       113       
114       102       112       
114       113       102       
115       111       103       
116       104       107       
104       117       105       
104       116       117       
105       118       106       
105       117       118       
119       116       107       
107       110       119       
108       113       120       
108       120       109       
113       121       120       
122       110       109       
120       122       109       
123       119       110       
122       123       110       
111       115       124       
112       111       124       
114       112       124       
114       124       125       
113       125       121       
114       125       113       
126       121       125       
127       124       115       
128       116       119       
116       129       117       
116       128       129       
117       130       118       
117       129       130       
131       128       119       
123       131       119       
132       120       121       
120       132       122       
126       133       121       
121       133       132       
122       134       123       
134       122       132       
135       131       123       
135       123       134       
124       127       136       
125       124       136       
126       125       136       
126       136       137       
126       137       133       
138       136       127       
131       139       128       
128       140       129       
128       139       140       
129       141       130       
129       140       141       
131       142       139       
135       142       131       
143       144       137       
144       133       137       
132       133       145       
132       145       134       
144       145       133       
146       135       134       
146       134       145       
135       147       142       
146       147       135       
136       138       148       
137       136       148       
143       137       148       
149       148       138       
142       150       139       
139       151       140       
139       150       151       
140       152       141       
140       151       152       
142       153       150       
153       142       147       
143       148       154       
143       155       144       
143       154       155       
156       144       155       
156       145       144       
146       157       147       
156       157       145       
146       145       157       
147       158       153       
158       147       157       
148       149       159       
154       148       159       
160       154       159       
161       159       149       
162       160       159       
163       150       153       
150       164       151       
150       163       164       
151       165       152       
151       164       165       
166       163       153       
153       158       166       
160       167       154       
155       154       167       
156       155       168       
155       167       168       
156       168       157       
169       158       157       
169       157       168       
170       166       158       
169       170       158       
160       171       167       
162       171       160       
172       173       161       
161       173       159       
162       159       173       
174       162       173       
162       174       171       
175       173       172       
175       172       176       
163       166       177       
163       178       164       
177       178       163       
164       179       165       
178       179       164       
180       177       166       
166       170       180       
167       171       181       
167       181       168       
181       182       168       
169       182       170       
169       168       182       
170       183       180       
170       182       183       
184       181       171       
174       185       171       
184       171       185       
186       173       175       
174       173       186       
174       186       185       
187       186       175       
188       175       176       
187       175       188       
176       189       188       
177       180       190       
177       191       178       
190       191       177       
178       192       179       
191       192       178       
193       190       180       
180       183       193       
184       194       181       
182       194       183       
181       194       182       
195       193       183       
183       194       195       
184       185       196       
184       196       194       
185       186       197       
185       197       196       
187       198       186       
198       197       186       
187       199       198       
187       188       199       
200       188       189       
188       200       199       
193       201       190       
190       202       191       
201       202       190       
191       203       192       
202       203       191       
204       201       193       
195       204       193       
196       205       194       
205       195       194       
206       204       195       
206       195       205       
197       207       196       
205       196       207       
198       208       197       
207       197       208       
199       209       198       
208       198       209       
210       199       200       
199       210       209       
204       211       201       
201       212       202       
211       212       201       
202       213       203       
212       213       202       
214       211       204       
206       214       204       
205       207       215       
206       205       215       
206       215       214       
208       216       207       
207       216       215       
209       217       208       
216       208       217       
209       210       218       
218       217       209       
211       214       219       
211       220       212       
219       220       211       
212       221       213       
220       221       212       
222       219       214       
214       215       222       
216       223       215       
223       222       215       
217       224       216       
223       216       224       
217       218       225       
225       224       217       
226       219       222       
219       227       220       
226       227       219       
220       228       221       
227       228       220       
222       223       229       
226       222       229       
224       230       223       
230       229       223       
224       225       231       
231       230       224       
226       232       227       
226       229       232       
227       233       228       
227       232       233       
229       230       234       
234       232       229       
230       231       235       
235       234       230       
236       232       234       
233       232       237       
236       237       232       
234       235       238       
236       234       238       
236       238       239       
236       239       237       
