% Model:              0.mph                 
% Version:            COMSOL 6.1.0.252      
% Date:               Jun 24 2023, 00:41    
% Dimension:          2                     
% Nodes:              601                   
% Elements:           1140                  
% Expressions:        0                     
% Description:                              
% Length unit:        m                     
% Coordinates
0.0431173                0.0450896                
0                        0.0666667                
0                        0                        
0.0666667                0                        
0.0491901                0.100303                 
0                        0.133333                 
0.133333                 0                        
0.09973                  0.0584784                
0.0515304                0.165511                 
0                        0.2                      
0.168552                 0.0532444                
0.2                      0                        
0.10131                  0.132131                 
0.148715                 0.101988                 
0.0533478                0.231962                 
0                        0.266667                 
0.106359                 0.197744                 
0.23461                  0.0533332                
0.266667                 0                        
0.203939                 0.106408                 
0.16632                  0.163447                 
0.0530808                0.299032                 
0                        0.333333                 
0.0533362                0.365899                 
0                        0.4                      
0.106322                 0.264719                 
0.15894                  0.230631                 
0.300353                 0.0541121                
0.333333                 0                        
0.267842                 0.108854                 
0.236158                 0.164229                 
0.20844                  0.210735                 
0.0536445                0.432944                 
0                        0.466667                 
0.053731                 0.499842                 
0                        0.533333                 
0.106618                 0.331952                 
0.107069                 0.398981                 
0.159815                 0.297253                 
0.212193                 0.265511                 
0.366565                 0.0540089                
0.4                      0                        
0.333064                 0.108466                 
0.298931                 0.166573                 
0.264897                 0.226501                 
0.433154                 0.0538917                
0.466667                 0                        
0.0539308                0.566732                 
0                        0.6                      
0.107324                 0.46607                  
0.107389                 0.533255                 
0.160519                 0.364856                 
0.160954                 0.432032                 
0.213986                 0.331074                 
0.267089                 0.296872                 
0.399554                 0.107773                 
0.365157                 0.162011                 
0.332901                 0.217286                 
0.313399                 0.267179                 
0.499839                 0.0538111                
0.533333                 0                        
0.466318                 0.107795                 
0.566515                 0.0536447                
0.6                      0                        
0.0543576                0.633802                 
0                        0.666667                 
0.0544219                0.701379                 
0                        0.733333                 
0.108098                 0.600149                 
0.16115                  0.499345                 
0.16094                  0.566159                 
0.21467                  0.397847                 
0.214366                 0.464214                 
0.269337                 0.363368                 
0.330233                 0.327918                 
0.432648                 0.162086                 
0.39904                  0.217062                 
0.368771                 0.271011                 
0.499676                 0.161703                 
0.533077                 0.107548                 
0.633172                 0.0533699                
0.666667                 0                        
0.599717                 0.107097                 
0.699894                 0.0529986                
0.733333                 0                        
0.0547832                0.767167                 
0                        0.8                      
0.0536792                0.830853                 
0                        0.866667                 
0.109608                 0.667465                 
0.115323                 0.738924                 
0.162381                 0.633185                 
0.213924                 0.530884                 
0.212783                 0.599265                 
0.26814                  0.429849                 
0.267354                 0.49532                  
0.321901                 0.396651                 
0.371628                 0.374128                 
0.400278                 0.326852                 
0.466545                 0.216372                 
0.43374                  0.271535                 
0.533568                 0.215486                 
0.566428                 0.161205                 
0.666316                 0.106423                 
0.632908                 0.160345                 
0.76663                  0.0525474                
0.8                      0                        
0.733281                 0.105629                 
0.833151                 0.0512415                
0.866667                 0                        
0.0600848                0.899819                 
0                        0.933333                 
0.0456907                0.95685                  
0                        1                        
0.105267                 0.800525                 
0.101843                 0.851012                 
0.164279                 0.697889                 
0.167074                 0.747225                 
0.1484                   0.781373                 
0.220588                 0.668852                 
0.266889                 0.560741                 
0.268782                 0.620955                 
0.321209                 0.461694                 
0.319615                 0.524573                 
0.374453                 0.429635                 
0.431276                 0.389586                 
0.465984                 0.327023                 
0.500524                 0.270414                 
0.568122                 0.268411                 
0.599889                 0.214863                 
0.699042                 0.159073                 
0.666111                 0.213402                 
0.800122                 0.105415                 
0.765849                 0.156806                 
0.866267                 0.100181                 
0.899222                 0.0493052                
0.933333                 0                        
0.954745                 0.0433967                
1                        0                        
0.130442                 0.89578                  
0.101614                 0.951026                 
0.0666667                1                        
0.157468                 0.833754                 
0.210594                 0.731581                 
0.196767                 0.786346                 
0.256538                 0.715548                 
0.284951                 0.674953                 
0.31839                  0.58573                  
0.313603                 0.637523                 
0.373531                 0.491983                 
0.370314                 0.551969                 
0.425684                 0.462809                 
0.478419                 0.437213                 
0.501397                 0.379701                 
0.533909                 0.324135                 
0.601279                 0.321603                 
0.634607                 0.268782                 
0.700548                 0.265614                 
0.729848                 0.211822                 
0.787309                 0.207523                 
0.834628                 0.165756                 
0.896393                 0.149527                 
0.941171                 0.101012                 
1                        0.0666667                
0.195934                 0.891613                 
0.165523                 0.947388                 
0.133333                 1                        
0.227137                 0.836262                 
0.25829                  0.77355                  
0.307128                 0.729832                 
0.343068                 0.677008                 
0.371522                 0.619341                 
0.415441                 0.578469                 
0.429692                 0.523355                 
0.466126                 0.485043                 
0.510222                 0.478785                 
0.539539                 0.429489                 
0.567138                 0.377806                 
0.623501                 0.372679                 
0.669888                 0.330207                 
0.730655                 0.313522                 
0.771826                 0.266779                 
0.835005                 0.236324                 
0.891292                 0.204183                 
0.945851                 0.170281                 
1                        0.133333                 
0.263342                 0.890641                 
0.231693                 0.945854                 
0.2                      1                        
0.294295                 0.834745                 
0.326836                 0.781853                 
0.368334                 0.73112                  
0.403707                 0.677003                 
0.436878                 0.624474                 
0.464456                 0.572091                 
0.486492                 0.523061                 
0.529119                 0.51602                  
0.56235                  0.482552                 
0.609563                 0.433457                 
0.671768                 0.400886                 
0.726842                 0.368756                 
0.780402                 0.334254                 
0.834499                 0.301                    
0.8904                   0.268208                 
0.945477                 0.235003                 
1                        0.2                      
0.330545                 0.890805                 
0.298597                 0.945485                 
0.266667                 1                        
0.362762                 0.836617                 
0.394319                 0.782677                 
0.432986                 0.729784                 
0.467279                 0.675294                 
0.497887                 0.619992                 
0.519338                 0.563069                 
0.570641                 0.538558                 
0.620384                 0.501885                 
0.672648                 0.466623                 
0.727264                 0.433955                 
0.781512                 0.400352                 
0.835765                 0.367188                 
0.890365                 0.33406                  
0.945288                 0.300696                 
1                        0.266667                 
0.398629                 0.891706                 
0.365646                 0.945636                 
0.333333                 1                        
0.431689                 0.837743                 
0.464817                 0.783125                 
0.499182                 0.728506                 
0.533011                 0.67195                  
0.567337                 0.608739                 
0.622185                 0.566003                 
0.675336                 0.533646                 
0.728456                 0.500186                 
0.782359                 0.466928                 
0.836469                 0.433592                 
0.890801                 0.400334                 
0.945364                 0.366965                 
1                        0.333333                 
0.465749                 0.891686                 
0.432748                 0.945819                 
0.4                      1                        
0.498842                 0.837347                 
0.531884                 0.782693                 
0.564773                 0.727225                 
0.597924                 0.672354                 
0.626541                 0.622238                 
0.678317                 0.600243                 
0.730024                 0.566938                 
0.783332                 0.533437                 
0.837135                 0.500088                 
0.891235                 0.466788                 
0.945545                 0.433454                 
1                        0.4                      
0.532865                 0.891644                 
0.499702                 0.945846                 
0.466667                 1                        
0.566041                 0.837187                 
0.598145                 0.782324                 
0.629017                 0.726715                 
0.669475                 0.670216                 
0.730463                 0.634166                 
0.784243                 0.599952                 
0.837792                 0.566556                 
0.891669                 0.533319                 
0.945758                 0.50002                  
1                        0.466667                 
0.599864                 0.89182                  
0.566659                 0.945844                 
0.533333                 1                        
0.633289                 0.837548                 
0.663935                 0.782988                 
0.685316                 0.731118                 
0.733864                 0.700844                 
0.785416                 0.66585                  
0.838433                 0.632772                 
0.89198                  0.599819                 
0.945868                 0.566654                 
1                        0.533333                 
0.665736                 0.89041                  
0.632681                 0.945268                 
0.6                      1                        
0.699012                 0.833032                 
0.732796                 0.772074                 
0.786121                 0.72926                  
0.839318                 0.698629                 
0.892513                 0.666124                 
0.946089                 0.633177                 
1                        0.6                      
0.730666                 0.889689                 
0.698883                 0.945071                 
0.666667                 1                        
0.762022                 0.834101                 
0.789656                 0.785394                 
0.840437                 0.765146                 
0.892984                 0.73262                  
0.946321                 0.699727                 
1                        0.666667                 
0.794119                 0.890458                 
0.764222                 0.94506                  
0.733333                 1                        
0.832122                 0.833712                 
0.892933                 0.799666                 
0.946397                 0.766427                 
1                        0.733333                 
0.848309                 0.895255                 
0.828337                 0.945142                 
0.8                      1                        
0.897381                 0.865962                 
0.947749                 0.832916                 
1                        0.8                      
0.897347                 0.939689                 
0.866667                 1                        
0.949781                 0.898777                 
1                        0.866667                 
0.956212                 0.954097                 
0.933333                 1                        
1                        0.933333                 
1                        1                        
0.566616                 0.0178816                
0.533229                 0.0358186                
0.533144                 0.0716679                
0.63328                  0.01779                  
0.599896                 0.0356715                
0.599802                 0.0713705                
0.566436                 0.0894298                
0.699965                 0.0176662                
0.666578                 0.0354562                
0.566407                 0.125283                 
0.53306                  0.143485                 
0.533224                 0.179465                 
0.666461                 0.0709304                
0.633069                 0.0889632                
0.632981                 0.124622                 
0.599684                 0.142882                 
0.766654                 0.0175158                
0.733286                 0.035182                 
0.733268                 0.0703918                
0.69983                  0.0883503                
0.799927                 0.0345963                
0.833273                 0.0170805                
0.500212                 0.234091                 
0.534071                 0.251437                 
0.599742                 0.178804                 
0.566628                 0.197184                 
0.567193                 0.23292                  
0.699546                 0.123708                 
0.666089                 0.141947                 
0.66602                  0.177607                 
0.632969                 0.196203                 
0.799968                 0.0697345                
0.766678                 0.0878639                
0.766417                 0.122617                 
0.732724                 0.140503                 
0.83318                  0.0856125                
0.899741                 0.0164351                
0.866347                 0.0335156                
0.866213                 0.0669093                
0.9291                   0.0309007                
0.962693                 0.0144656                
0.534185                 0.287653                 
0.500139                 0.30719                  
0.50043                  0.34362                  
0.56777                  0.304716                 
0.633536                 0.232349                 
0.600873                 0.250685                 
0.601336                 0.286265                 
0.667089                 0.249266                 
0.73158                  0.1759                   
0.698333                 0.194766                 
0.698836                 0.230279                 
0.761002                 0.19205                  
0.833672                 0.123784                 
0.8002                   0.142659                 
0.795929                 0.176695                 
0.865762                 0.138488                 
0.931713                 0.0645712                
0.90222                  0.0834994                
0.901277                 0.116907                 
0.984915                 0.0366878                
0.965305                 0.0703584                
0.506452                 0.415467                 
0.509394                 0.448496                 
0.567442                 0.341181                 
0.534148                 0.360547                 
0.536025                 0.395665                 
0.597306                 0.357362                 
0.668348                 0.288201                 
0.635258                 0.306864                 
0.631556                 0.341496                 
0.700364                 0.303115                 
0.762994                 0.228708                 
0.734074                 0.248072                 
0.734343                 0.281972                 
0.818981                 0.203201                 
0.798047                 0.236875                 
0.874104                 0.173155                 
0.853642                 0.202088                 
0.927805                 0.140273                 
0.911179                 0.174664                 
0.98039                  0.100337                 
0.962341                 0.134875                 
0.508611                 0.505955                 
0.537371                 0.463609                 
0.533897                 0.492453                 
0.600067                 0.394647                 
0.57208                  0.413584                 
0.570484                 0.448499                 
0.634944                 0.402341                 
0.655052                 0.367924                 
0.709128                 0.337495                 
0.689499                 0.366616                 
0.760961                 0.304852                 
0.745966                 0.338844                 
0.813777                 0.268034                 
0.795576                 0.300678                 
0.872233                 0.236239                 
0.853301                 0.268511                 
0.92754                  0.203156                 
0.909057                 0.235798                 
0.98195                  0.167871                 
0.963776                 0.201761                 
0.51165                  0.53405                  
0.554037                 0.512377                 
0.5397                   0.539216                 
0.597432                 0.472632                 
0.584458                 0.507665                 
0.651326                 0.433655                 
0.634198                 0.467322                 
0.708625                 0.401199                 
0.69056                  0.433821                 
0.762919                 0.367787                 
0.745206                 0.401021                 
0.816889                 0.334147                 
0.799226                 0.367264                 
0.871755                 0.30109                  
0.853543                 0.334083                 
0.927055                 0.267969                 
0.908684                 0.300988                 
0.981826                 0.23389                  
0.963588                 0.267455                 
0.532745                 0.63356                  
0.528188                 0.597267                 
0.552439                 0.570122                 
0.604403                 0.535482                 
0.586721                 0.5711                   
0.656123                 0.500718                 
0.639302                 0.533845                 
0.709456                 0.466921                 
0.692147                 0.500152                 
0.763712                 0.433745                 
0.746026                 0.467023                 
0.817915                 0.400377                 
0.800113                 0.433624                 
0.87231                  0.367194                 
0.854345                 0.400371                 
0.927005                 0.333907                 
0.908843                 0.36712                  
0.981763                 0.300232                 
0.963551                 0.333665                 
0.531946                 0.746141                 
0.532322                 0.709227                 
0.565236                 0.690509                 
0.566091                 0.651014                 
0.597267                 0.634444                 
0.605355                 0.598993                 
0.658613                 0.566631                 
0.642348                 0.596161                 
0.711272                 0.53359                  
0.694559                 0.566943                 
0.764716                 0.500184                 
0.747271                 0.533521                 
0.818654                 0.466869                 
0.800942                 0.500151                 
0.872835                 0.433571                 
0.854947                 0.466822                 
0.927237                 0.400251                 
0.909194                 0.433525                 
0.981788                 0.366766                 
0.963636                 0.40014                  
0.532583                 0.855393                 
0.532256                 0.819076                 
0.565357                 0.800735                 
0.564934                 0.764081                 
0.597312                 0.745421                 
0.597238                 0.708765                 
0.658111                 0.630899                 
0.631313                 0.654936                 
0.632139                 0.689762                 
0.712935                 0.600449                 
0.692752                 0.634875                 
0.765866                 0.566776                 
0.748243                 0.600352                 
0.81942                  0.53336                  
0.801789                 0.566648                 
0.873346                 0.500065                 
0.855532                 0.533321                 
0.927513                 0.466754                 
0.909554                 0.500042                 
0.981848                 0.433374                 
0.963768                 0.466713                 
0.566257                 0.87355                  
0.533075                 0.927778                 
0.566463                 0.90977                  
0.533231                 0.963897                 
0.599731                 0.855518                 
0.599158                 0.81902                  
0.63179                  0.800954                 
0.630366                 0.764009                 
0.659423                 0.74694                  
0.661269                 0.70935                  
0.711267                 0.668409                 
0.696218                 0.700726                 
0.766707                 0.633323                 
0.749914                 0.666954                 
0.820156                 0.59976                  
0.802698                 0.632858                 
0.873814                 0.566565                 
0.856069                 0.599715                 
0.927765                 0.533331                 
0.909839                 0.566598                 
0.981919                 0.500007                 
0.963875                 0.533336                 
0.632963                 0.873259                 
0.599735                 0.927644                 
0.632761                 0.909166                 
0.566664                 0.981948                 
0.59978                  0.963704                 
0.666012                 0.853664                 
0.665412                 0.817856                 
0.698581                 0.796032                 
0.694016                 0.76206                  
0.717325                 0.734679                 
0.768467                 0.698652                 
0.750927                 0.73406                  
0.821056                 0.66575                  
0.803618                 0.697913                 
0.874309                 0.632905                 
0.856755                 0.665841                 
0.927979                 0.599883                 
0.910194                 0.63304                  
0.981956                 0.566663                 
0.963986                 0.599944                 
0.698471                 0.871044                 
0.665767                 0.926917                 
0.698428                 0.90839                  
0.633116                 0.981756                 
0.666077                 0.963446                 
0.730567                 0.852274                 
0.731277                 0.813069                 
0.761491                 0.79719                  
0.769524                 0.762243                 
0.821959                 0.731012                 
0.805405                 0.759934                 
0.874938                 0.699124                 
0.85758                  0.732132                 
0.928308                 0.666343                 
0.910606                 0.69949                  
0.98203                  0.633281                 
0.964137                 0.666524                 
0.762269                 0.871416                 
0.731257                 0.926606                 
0.763002                 0.908402                 
0.699628                 0.98169                  
0.732146                 0.963377                 
0.796088                 0.852757                 
0.820738                 0.794751                 
0.7946                   0.817736                 
0.875451                 0.765811                 
0.855164                 0.799508                 
0.928568                 0.732925                 
0.910772                 0.766238                 
0.982107                 0.699909                 
0.964239                 0.733163                 
0.82485                  0.873142                 
0.795559                 0.926886                 
0.823588                 0.910285                 
0.765852                 0.981687                 
0.797519                 0.9634                   